+ 2.00819 /NodeList/1/DeviceList/0/$ns3::PointToPointNetDevice/TxQueue/Enqueue ns3::PppHeader (Point-to-Point Protocol: IP (0x0021)) ns3::Ipv4Header (tos 0x0 DSCP Default ECN Not-ECT ttl 64 id 0 protocol 17 offset (bytes) 0 flags [none] length: 540 10.1.1.2 > 10.1.1.1) ns3::UdpHeader (length: 520 49153 > 9) Payload (size=512)
- 2.00819 /NodeList/1/DeviceList/0/$ns3::PointToPointNetDevice/TxQueue/Dequeue ns3::PppHeader (Point-to-Point Protocol: IP (0x0021)) ns3::Ipv4Header (tos 0x0 DSCP Default ECN Not-ECT ttl 64 id 0 protocol 17 offset (bytes) 0 flags [none] length: 540 10.1.1.2 > 10.1.1.1) ns3::UdpHeader (length: 520 49153 > 9) Payload (size=512)
r 2.01106 /NodeList/0/DeviceList/0/$ns3::PointToPointNetDevice/MacRx ns3::PppHeader (Point-to-Point Protocol: IP (0x0021)) ns3::Ipv4Header (tos 0x0 DSCP Default ECN Not-ECT ttl 64 id 0 protocol 17 offset (bytes) 0 flags [none] length: 540 10.1.1.2 > 10.1.1.1) ns3::UdpHeader (length: 520 49153 > 9) Payload (size=512)
+ 2.01106 /NodeList/0/DeviceList/0/$ns3::PointToPointNetDevice/TxQueue/Enqueue ns3::PppHeader (Point-to-Point Protocol: IP (0x0021)) ns3::Ipv4Header (tos 0x0 DSCP Default ECN Not-ECT ttl 64 id 0 protocol 17 offset (bytes) 0 flags [none] length: 540 10.1.1.1 > 10.1.1.2) ns3::UdpHeader (length: 520 9 > 49153) Payload (size=512)
- 2.01106 /NodeList/0/DeviceList/0/$ns3::PointToPointNetDevice/TxQueue/Dequeue ns3::PppHeader (Point-to-Point Protocol: IP (0x0021)) ns3::Ipv4Header (tos 0x0 DSCP Default ECN Not-ECT ttl 64 id 0 protocol 17 offset (bytes) 0 flags [none] length: 540 10.1.1.1 > 10.1.1.2) ns3::UdpHeader (length: 520 9 > 49153) Payload (size=512)
r 2.01393 /NodeList/1/DeviceList/0/$ns3::PointToPointNetDevice/MacRx ns3::PppHeader (Point-to-Point Protocol: IP (0x0021)) ns3::Ipv4Header (tos 0x0 DSCP Default ECN Not-ECT ttl 64 id 0 protocol 17 offset (bytes) 0 flags [none] length: 540 10.1.1.1 > 10.1.1.2) ns3::UdpHeader (length: 520 9 > 49153) Payload (size=512)
+ 2.01393 /NodeList/1/DeviceList/0/$ns3::PointToPointNetDevice/TxQueue/Enqueue ns3::PppHeader (Point-to-Point Protocol: IP (0x0021)) ns3::Ipv4Header (tos 0x0 DSCP Default ECN Not-ECT ttl 64 id 0 protocol 1 offset (bytes) 0 flags [none] length: 56 10.1.1.2 > 10.1.1.1) ns3::Icmpv4Header (type=3, code=3) ns3::Icmpv4DestinationUnreachable (tos 0x0 DSCP Default ECN Not-ECT ttl 64 id 0 protocol 17 offset (bytes) 0 flags [none] length: 540 10.1.1.1 > 10.1.1.2 org data=0 9 192 1 2 8 0 0 )
- 2.01393 /NodeList/1/DeviceList/0/$ns3::PointToPointNetDevice/TxQueue/Dequeue ns3::PppHeader (Point-to-Point Protocol: IP (0x0021)) ns3::Ipv4Header (tos 0x0 DSCP Default ECN Not-ECT ttl 64 id 0 protocol 1 offset (bytes) 0 flags [none] length: 56 10.1.1.2 > 10.1.1.1) ns3::Icmpv4Header (type=3, code=3) ns3::Icmpv4DestinationUnreachable (tos 0x0 DSCP Default ECN Not-ECT ttl 64 id 0 protocol 17 offset (bytes) 0 flags [none] length: 540 10.1.1.1 > 10.1.1.2 org data=0 9 192 1 2 8 0 0 )
r 2.01602 /NodeList/0/DeviceList/0/$ns3::PointToPointNetDevice/MacRx ns3::PppHeader (Point-to-Point Protocol: IP (0x0021)) ns3::Ipv4Header (tos 0x0 DSCP Default ECN Not-ECT ttl 64 id 0 protocol 1 offset (bytes) 0 flags [none] length: 56 10.1.1.2 > 10.1.1.1) ns3::Icmpv4Header (type=3, code=3) ns3::Icmpv4DestinationUnreachable (tos 0x0 DSCP Default ECN Not-ECT ttl 64 id 0 protocol 17 offset (bytes) 0 flags [none] length: 540 10.1.1.1 > 10.1.1.2 org data=0 9 192 1 2 8 0 0 )
+ 2.01638 /NodeList/1/DeviceList/0/$ns3::PointToPointNetDevice/TxQueue/Enqueue ns3::PppHeader (Point-to-Point Protocol: IP (0x0021)) ns3::Ipv4Header (tos 0x0 DSCP Default ECN Not-ECT ttl 64 id 1 protocol 17 offset (bytes) 0 flags [none] length: 540 10.1.1.2 > 10.1.1.1) ns3::UdpHeader (length: 520 49153 > 9) Payload (size=512)
- 2.01638 /NodeList/1/DeviceList/0/$ns3::PointToPointNetDevice/TxQueue/Dequeue ns3::PppHeader (Point-to-Point Protocol: IP (0x0021)) ns3::Ipv4Header (tos 0x0 DSCP Default ECN Not-ECT ttl 64 id 1 protocol 17 offset (bytes) 0 flags [none] length: 540 10.1.1.2 > 10.1.1.1) ns3::UdpHeader (length: 520 49153 > 9) Payload (size=512)
r 2.01925 /NodeList/0/DeviceList/0/$ns3::PointToPointNetDevice/MacRx ns3::PppHeader (Point-to-Point Protocol: IP (0x0021)) ns3::Ipv4Header (tos 0x0 DSCP Default ECN Not-ECT ttl 64 id 1 protocol 17 offset (bytes) 0 flags [none] length: 540 10.1.1.2 > 10.1.1.1) ns3::UdpHeader (length: 520 49153 > 9) Payload (size=512)
+ 2.01925 /NodeList/0/DeviceList/0/$ns3::PointToPointNetDevice/TxQueue/Enqueue ns3::PppHeader (Point-to-Point Protocol: IP (0x0021)) ns3::Ipv4Header (tos 0x0 DSCP Default ECN Not-ECT ttl 64 id 1 protocol 17 offset (bytes) 0 flags [none] length: 540 10.1.1.1 > 10.1.1.2) ns3::UdpHeader (length: 520 9 > 49153) Payload (size=512)
- 2.01925 /NodeList/0/DeviceList/0/$ns3::PointToPointNetDevice/TxQueue/Dequeue ns3::PppHeader (Point-to-Point Protocol: IP (0x0021)) ns3::Ipv4Header (tos 0x0 DSCP Default ECN Not-ECT ttl 64 id 1 protocol 17 offset (bytes) 0 flags [none] length: 540 10.1.1.1 > 10.1.1.2) ns3::UdpHeader (length: 520 9 > 49153) Payload (size=512)
r 2.02212 /NodeList/1/DeviceList/0/$ns3::PointToPointNetDevice/MacRx ns3::PppHeader (Point-to-Point Protocol: IP (0x0021)) ns3::Ipv4Header (tos 0x0 DSCP Default ECN Not-ECT ttl 64 id 1 protocol 17 offset (bytes) 0 flags [none] length: 540 10.1.1.1 > 10.1.1.2) ns3::UdpHeader (length: 520 9 > 49153) Payload (size=512)
+ 2.02212 /NodeList/1/DeviceList/0/$ns3::PointToPointNetDevice/TxQueue/Enqueue ns3::PppHeader (Point-to-Point Protocol: IP (0x0021)) ns3::Ipv4Header (tos 0x0 DSCP Default ECN Not-ECT ttl 64 id 1 protocol 1 offset (bytes) 0 flags [none] length: 56 10.1.1.2 > 10.1.1.1) ns3::Icmpv4Header (type=3, code=3) ns3::Icmpv4DestinationUnreachable (tos 0x0 DSCP Default ECN Not-ECT ttl 64 id 1 protocol 17 offset (bytes) 0 flags [none] length: 540 10.1.1.1 > 10.1.1.2 org data=0 9 192 1 2 8 0 0 )
- 2.02212 /NodeList/1/DeviceList/0/$ns3::PointToPointNetDevice/TxQueue/Dequeue ns3::PppHeader (Point-to-Point Protocol: IP (0x0021)) ns3::Ipv4Header (tos 0x0 DSCP Default ECN Not-ECT ttl 64 id 1 protocol 1 offset (bytes) 0 flags [none] length: 56 10.1.1.2 > 10.1.1.1) ns3::Icmpv4Header (type=3, code=3) ns3::Icmpv4DestinationUnreachable (tos 0x0 DSCP Default ECN Not-ECT ttl 64 id 1 protocol 17 offset (bytes) 0 flags [none] length: 540 10.1.1.1 > 10.1.1.2 org data=0 9 192 1 2 8 0 0 )
r 2.02421 /NodeList/0/DeviceList/0/$ns3::PointToPointNetDevice/MacRx ns3::PppHeader (Point-to-Point Protocol: IP (0x0021)) ns3::Ipv4Header (tos 0x0 DSCP Default ECN Not-ECT ttl 64 id 1 protocol 1 offset (bytes) 0 flags [none] length: 56 10.1.1.2 > 10.1.1.1) ns3::Icmpv4Header (type=3, code=3) ns3::Icmpv4DestinationUnreachable (tos 0x0 DSCP Default ECN Not-ECT ttl 64 id 1 protocol 17 offset (bytes) 0 flags [none] length: 540 10.1.1.1 > 10.1.1.2 org data=0 9 192 1 2 8 0 0 )
+ 2.02458 /NodeList/1/DeviceList/0/$ns3::PointToPointNetDevice/TxQueue/Enqueue ns3::PppHeader (Point-to-Point Protocol: IP (0x0021)) ns3::Ipv4Header (tos 0x0 DSCP Default ECN Not-ECT ttl 64 id 2 protocol 17 offset (bytes) 0 flags [none] length: 540 10.1.1.2 > 10.1.1.1) ns3::UdpHeader (length: 520 49153 > 9) Payload (size=512)
- 2.02458 /NodeList/1/DeviceList/0/$ns3::PointToPointNetDevice/TxQueue/Dequeue ns3::PppHeader (Point-to-Point Protocol: IP (0x0021)) ns3::Ipv4Header (tos 0x0 DSCP Default ECN Not-ECT ttl 64 id 2 protocol 17 offset (bytes) 0 flags [none] length: 540 10.1.1.2 > 10.1.1.1) ns3::UdpHeader (length: 520 49153 > 9) Payload (size=512)
r 2.02744 /NodeList/0/DeviceList/0/$ns3::PointToPointNetDevice/MacRx ns3::PppHeader (Point-to-Point Protocol: IP (0x0021)) ns3::Ipv4Header (tos 0x0 DSCP Default ECN Not-ECT ttl 64 id 2 protocol 17 offset (bytes) 0 flags [none] length: 540 10.1.1.2 > 10.1.1.1) ns3::UdpHeader (length: 520 49153 > 9) Payload (size=512)
+ 2.02744 /NodeList/0/DeviceList/0/$ns3::PointToPointNetDevice/TxQueue/Enqueue ns3::PppHeader (Point-to-Point Protocol: IP (0x0021)) ns3::Ipv4Header (tos 0x0 DSCP Default ECN Not-ECT ttl 64 id 2 protocol 17 offset (bytes) 0 flags [none] length: 540 10.1.1.1 > 10.1.1.2) ns3::UdpHeader (length: 520 9 > 49153) Payload (size=512)
- 2.02744 /NodeList/0/DeviceList/0/$ns3::PointToPointNetDevice/TxQueue/Dequeue ns3::PppHeader (Point-to-Point Protocol: IP (0x0021)) ns3::Ipv4Header (tos 0x0 DSCP Default ECN Not-ECT ttl 64 id 2 protocol 17 offset (bytes) 0 flags [none] length: 540 10.1.1.1 > 10.1.1.2) ns3::UdpHeader (length: 520 9 > 49153) Payload (size=512)
r 2.03031 /NodeList/1/DeviceList/0/$ns3::PointToPointNetDevice/MacRx ns3::PppHeader (Point-to-Point Protocol: IP (0x0021)) ns3::Ipv4Header (tos 0x0 DSCP Default ECN Not-ECT ttl 64 id 2 protocol 17 offset (bytes) 0 flags [none] length: 540 10.1.1.1 > 10.1.1.2) ns3::UdpHeader (length: 520 9 > 49153) Payload (size=512)
+ 2.03031 /NodeList/1/DeviceList/0/$ns3::PointToPointNetDevice/TxQueue/Enqueue ns3::PppHeader (Point-to-Point Protocol: IP (0x0021)) ns3::Ipv4Header (tos 0x0 DSCP Default ECN Not-ECT ttl 64 id 2 protocol 1 offset (bytes) 0 flags [none] length: 56 10.1.1.2 > 10.1.1.1) ns3::Icmpv4Header (type=3, code=3) ns3::Icmpv4DestinationUnreachable (tos 0x0 DSCP Default ECN Not-ECT ttl 64 id 2 protocol 17 offset (bytes) 0 flags [none] length: 540 10.1.1.1 > 10.1.1.2 org data=0 9 192 1 2 8 0 0 )
- 2.03031 /NodeList/1/DeviceList/0/$ns3::PointToPointNetDevice/TxQueue/Dequeue ns3::PppHeader (Point-to-Point Protocol: IP (0x0021)) ns3::Ipv4Header (tos 0x0 DSCP Default ECN Not-ECT ttl 64 id 2 protocol 1 offset (bytes) 0 flags [none] length: 56 10.1.1.2 > 10.1.1.1) ns3::Icmpv4Header (type=3, code=3) ns3::Icmpv4DestinationUnreachable (tos 0x0 DSCP Default ECN Not-ECT ttl 64 id 2 protocol 17 offset (bytes) 0 flags [none] length: 540 10.1.1.1 > 10.1.1.2 org data=0 9 192 1 2 8 0 0 )
r 2.0324 /NodeList/0/DeviceList/0/$ns3::PointToPointNetDevice/MacRx ns3::PppHeader (Point-to-Point Protocol: IP (0x0021)) ns3::Ipv4Header (tos 0x0 DSCP Default ECN Not-ECT ttl 64 id 2 protocol 1 offset (bytes) 0 flags [none] length: 56 10.1.1.2 > 10.1.1.1) ns3::Icmpv4Header (type=3, code=3) ns3::Icmpv4DestinationUnreachable (tos 0x0 DSCP Default ECN Not-ECT ttl 64 id 2 protocol 17 offset (bytes) 0 flags [none] length: 540 10.1.1.1 > 10.1.1.2 org data=0 9 192 1 2 8 0 0 )
+ 2.03277 /NodeList/1/DeviceList/0/$ns3::PointToPointNetDevice/TxQueue/Enqueue ns3::PppHeader (Point-to-Point Protocol: IP (0x0021)) ns3::Ipv4Header (tos 0x0 DSCP Default ECN Not-ECT ttl 64 id 3 protocol 17 offset (bytes) 0 flags [none] length: 540 10.1.1.2 > 10.1.1.1) ns3::UdpHeader (length: 520 49153 > 9) Payload (size=512)
- 2.03277 /NodeList/1/DeviceList/0/$ns3::PointToPointNetDevice/TxQueue/Dequeue ns3::PppHeader (Point-to-Point Protocol: IP (0x0021)) ns3::Ipv4Header (tos 0x0 DSCP Default ECN Not-ECT ttl 64 id 3 protocol 17 offset (bytes) 0 flags [none] length: 540 10.1.1.2 > 10.1.1.1) ns3::UdpHeader (length: 520 49153 > 9) Payload (size=512)
r 2.03564 /NodeList/0/DeviceList/0/$ns3::PointToPointNetDevice/MacRx ns3::PppHeader (Point-to-Point Protocol: IP (0x0021)) ns3::Ipv4Header (tos 0x0 DSCP Default ECN Not-ECT ttl 64 id 3 protocol 17 offset (bytes) 0 flags [none] length: 540 10.1.1.2 > 10.1.1.1) ns3::UdpHeader (length: 520 49153 > 9) Payload (size=512)
+ 2.03564 /NodeList/0/DeviceList/0/$ns3::PointToPointNetDevice/TxQueue/Enqueue ns3::PppHeader (Point-to-Point Protocol: IP (0x0021)) ns3::Ipv4Header (tos 0x0 DSCP Default ECN Not-ECT ttl 64 id 3 protocol 17 offset (bytes) 0 flags [none] length: 540 10.1.1.1 > 10.1.1.2) ns3::UdpHeader (length: 520 9 > 49153) Payload (size=512)
- 2.03564 /NodeList/0/DeviceList/0/$ns3::PointToPointNetDevice/TxQueue/Dequeue ns3::PppHeader (Point-to-Point Protocol: IP (0x0021)) ns3::Ipv4Header (tos 0x0 DSCP Default ECN Not-ECT ttl 64 id 3 protocol 17 offset (bytes) 0 flags [none] length: 540 10.1.1.1 > 10.1.1.2) ns3::UdpHeader (length: 520 9 > 49153) Payload (size=512)
r 2.0385 /NodeList/1/DeviceList/0/$ns3::PointToPointNetDevice/MacRx ns3::PppHeader (Point-to-Point Protocol: IP (0x0021)) ns3::Ipv4Header (tos 0x0 DSCP Default ECN Not-ECT ttl 64 id 3 protocol 17 offset (bytes) 0 flags [none] length: 540 10.1.1.1 > 10.1.1.2) ns3::UdpHeader (length: 520 9 > 49153) Payload (size=512)
+ 2.0385 /NodeList/1/DeviceList/0/$ns3::PointToPointNetDevice/TxQueue/Enqueue ns3::PppHeader (Point-to-Point Protocol: IP (0x0021)) ns3::Ipv4Header (tos 0x0 DSCP Default ECN Not-ECT ttl 64 id 3 protocol 1 offset (bytes) 0 flags [none] length: 56 10.1.1.2 > 10.1.1.1) ns3::Icmpv4Header (type=3, code=3) ns3::Icmpv4DestinationUnreachable (tos 0x0 DSCP Default ECN Not-ECT ttl 64 id 3 protocol 17 offset (bytes) 0 flags [none] length: 540 10.1.1.1 > 10.1.1.2 org data=0 9 192 1 2 8 0 0 )
- 2.0385 /NodeList/1/DeviceList/0/$ns3::PointToPointNetDevice/TxQueue/Dequeue ns3::PppHeader (Point-to-Point Protocol: IP (0x0021)) ns3::Ipv4Header (tos 0x0 DSCP Default ECN Not-ECT ttl 64 id 3 protocol 1 offset (bytes) 0 flags [none] length: 56 10.1.1.2 > 10.1.1.1) ns3::Icmpv4Header (type=3, code=3) ns3::Icmpv4DestinationUnreachable (tos 0x0 DSCP Default ECN Not-ECT ttl 64 id 3 protocol 17 offset (bytes) 0 flags [none] length: 540 10.1.1.1 > 10.1.1.2 org data=0 9 192 1 2 8 0 0 )
r 2.0406 /NodeList/0/DeviceList/0/$ns3::PointToPointNetDevice/MacRx ns3::PppHeader (Point-to-Point Protocol: IP (0x0021)) ns3::Ipv4Header (tos 0x0 DSCP Default ECN Not-ECT ttl 64 id 3 protocol 1 offset (bytes) 0 flags [none] length: 56 10.1.1.2 > 10.1.1.1) ns3::Icmpv4Header (type=3, code=3) ns3::Icmpv4DestinationUnreachable (tos 0x0 DSCP Default ECN Not-ECT ttl 64 id 3 protocol 17 offset (bytes) 0 flags [none] length: 540 10.1.1.1 > 10.1.1.2 org data=0 9 192 1 2 8 0 0 )
+ 2.04096 /NodeList/1/DeviceList/0/$ns3::PointToPointNetDevice/TxQueue/Enqueue ns3::PppHeader (Point-to-Point Protocol: IP (0x0021)) ns3::Ipv4Header (tos 0x0 DSCP Default ECN Not-ECT ttl 64 id 4 protocol 17 offset (bytes) 0 flags [none] length: 540 10.1.1.2 > 10.1.1.1) ns3::UdpHeader (length: 520 49153 > 9) Payload (size=512)
- 2.04096 /NodeList/1/DeviceList/0/$ns3::PointToPointNetDevice/TxQueue/Dequeue ns3::PppHeader (Point-to-Point Protocol: IP (0x0021)) ns3::Ipv4Header (tos 0x0 DSCP Default ECN Not-ECT ttl 64 id 4 protocol 17 offset (bytes) 0 flags [none] length: 540 10.1.1.2 > 10.1.1.1) ns3::UdpHeader (length: 520 49153 > 9) Payload (size=512)
r 2.04383 /NodeList/0/DeviceList/0/$ns3::PointToPointNetDevice/MacRx ns3::PppHeader (Point-to-Point Protocol: IP (0x0021)) ns3::Ipv4Header (tos 0x0 DSCP Default ECN Not-ECT ttl 64 id 4 protocol 17 offset (bytes) 0 flags [none] length: 540 10.1.1.2 > 10.1.1.1) ns3::UdpHeader (length: 520 49153 > 9) Payload (size=512)
+ 2.04383 /NodeList/0/DeviceList/0/$ns3::PointToPointNetDevice/TxQueue/Enqueue ns3::PppHeader (Point-to-Point Protocol: IP (0x0021)) ns3::Ipv4Header (tos 0x0 DSCP Default ECN Not-ECT ttl 64 id 4 protocol 17 offset (bytes) 0 flags [none] length: 540 10.1.1.1 > 10.1.1.2) ns3::UdpHeader (length: 520 9 > 49153) Payload (size=512)
- 2.04383 /NodeList/0/DeviceList/0/$ns3::PointToPointNetDevice/TxQueue/Dequeue ns3::PppHeader (Point-to-Point Protocol: IP (0x0021)) ns3::Ipv4Header (tos 0x0 DSCP Default ECN Not-ECT ttl 64 id 4 protocol 17 offset (bytes) 0 flags [none] length: 540 10.1.1.1 > 10.1.1.2) ns3::UdpHeader (length: 520 9 > 49153) Payload (size=512)
r 2.04669 /NodeList/1/DeviceList/0/$ns3::PointToPointNetDevice/MacRx ns3::PppHeader (Point-to-Point Protocol: IP (0x0021)) ns3::Ipv4Header (tos 0x0 DSCP Default ECN Not-ECT ttl 64 id 4 protocol 17 offset (bytes) 0 flags [none] length: 540 10.1.1.1 > 10.1.1.2) ns3::UdpHeader (length: 520 9 > 49153) Payload (size=512)
+ 2.04669 /NodeList/1/DeviceList/0/$ns3::PointToPointNetDevice/TxQueue/Enqueue ns3::PppHeader (Point-to-Point Protocol: IP (0x0021)) ns3::Ipv4Header (tos 0x0 DSCP Default ECN Not-ECT ttl 64 id 4 protocol 1 offset (bytes) 0 flags [none] length: 56 10.1.1.2 > 10.1.1.1) ns3::Icmpv4Header (type=3, code=3) ns3::Icmpv4DestinationUnreachable (tos 0x0 DSCP Default ECN Not-ECT ttl 64 id 4 protocol 17 offset (bytes) 0 flags [none] length: 540 10.1.1.1 > 10.1.1.2 org data=0 9 192 1 2 8 0 0 )
- 2.04669 /NodeList/1/DeviceList/0/$ns3::PointToPointNetDevice/TxQueue/Dequeue ns3::PppHeader (Point-to-Point Protocol: IP (0x0021)) ns3::Ipv4Header (tos 0x0 DSCP Default ECN Not-ECT ttl 64 id 4 protocol 1 offset (bytes) 0 flags [none] length: 56 10.1.1.2 > 10.1.1.1) ns3::Icmpv4Header (type=3, code=3) ns3::Icmpv4DestinationUnreachable (tos 0x0 DSCP Default ECN Not-ECT ttl 64 id 4 protocol 17 offset (bytes) 0 flags [none] length: 540 10.1.1.1 > 10.1.1.2 org data=0 9 192 1 2 8 0 0 )
r 2.04879 /NodeList/0/DeviceList/0/$ns3::PointToPointNetDevice/MacRx ns3::PppHeader (Point-to-Point Protocol: IP (0x0021)) ns3::Ipv4Header (tos 0x0 DSCP Default ECN Not-ECT ttl 64 id 4 protocol 1 offset (bytes) 0 flags [none] length: 56 10.1.1.2 > 10.1.1.1) ns3::Icmpv4Header (type=3, code=3) ns3::Icmpv4DestinationUnreachable (tos 0x0 DSCP Default ECN Not-ECT ttl 64 id 4 protocol 17 offset (bytes) 0 flags [none] length: 540 10.1.1.1 > 10.1.1.2 org data=0 9 192 1 2 8 0 0 )
+ 2.04915 /NodeList/1/DeviceList/0/$ns3::PointToPointNetDevice/TxQueue/Enqueue ns3::PppHeader (Point-to-Point Protocol: IP (0x0021)) ns3::Ipv4Header (tos 0x0 DSCP Default ECN Not-ECT ttl 64 id 5 protocol 17 offset (bytes) 0 flags [none] length: 540 10.1.1.2 > 10.1.1.1) ns3::UdpHeader (length: 520 49153 > 9) Payload (size=512)
- 2.04915 /NodeList/1/DeviceList/0/$ns3::PointToPointNetDevice/TxQueue/Dequeue ns3::PppHeader (Point-to-Point Protocol: IP (0x0021)) ns3::Ipv4Header (tos 0x0 DSCP Default ECN Not-ECT ttl 64 id 5 protocol 17 offset (bytes) 0 flags [none] length: 540 10.1.1.2 > 10.1.1.1) ns3::UdpHeader (length: 520 49153 > 9) Payload (size=512)
r 2.05202 /NodeList/0/DeviceList/0/$ns3::PointToPointNetDevice/MacRx ns3::PppHeader (Point-to-Point Protocol: IP (0x0021)) ns3::Ipv4Header (tos 0x0 DSCP Default ECN Not-ECT ttl 64 id 5 protocol 17 offset (bytes) 0 flags [none] length: 540 10.1.1.2 > 10.1.1.1) ns3::UdpHeader (length: 520 49153 > 9) Payload (size=512)
+ 2.05202 /NodeList/0/DeviceList/0/$ns3::PointToPointNetDevice/TxQueue/Enqueue ns3::PppHeader (Point-to-Point Protocol: IP (0x0021)) ns3::Ipv4Header (tos 0x0 DSCP Default ECN Not-ECT ttl 64 id 5 protocol 17 offset (bytes) 0 flags [none] length: 540 10.1.1.1 > 10.1.1.2) ns3::UdpHeader (length: 520 9 > 49153) Payload (size=512)
- 2.05202 /NodeList/0/DeviceList/0/$ns3::PointToPointNetDevice/TxQueue/Dequeue ns3::PppHeader (Point-to-Point Protocol: IP (0x0021)) ns3::Ipv4Header (tos 0x0 DSCP Default ECN Not-ECT ttl 64 id 5 protocol 17 offset (bytes) 0 flags [none] length: 540 10.1.1.1 > 10.1.1.2) ns3::UdpHeader (length: 520 9 > 49153) Payload (size=512)
r 2.05489 /NodeList/1/DeviceList/0/$ns3::PointToPointNetDevice/MacRx ns3::PppHeader (Point-to-Point Protocol: IP (0x0021)) ns3::Ipv4Header (tos 0x0 DSCP Default ECN Not-ECT ttl 64 id 5 protocol 17 offset (bytes) 0 flags [none] length: 540 10.1.1.1 > 10.1.1.2) ns3::UdpHeader (length: 520 9 > 49153) Payload (size=512)
+ 2.05489 /NodeList/1/DeviceList/0/$ns3::PointToPointNetDevice/TxQueue/Enqueue ns3::PppHeader (Point-to-Point Protocol: IP (0x0021)) ns3::Ipv4Header (tos 0x0 DSCP Default ECN Not-ECT ttl 64 id 5 protocol 1 offset (bytes) 0 flags [none] length: 56 10.1.1.2 > 10.1.1.1) ns3::Icmpv4Header (type=3, code=3) ns3::Icmpv4DestinationUnreachable (tos 0x0 DSCP Default ECN Not-ECT ttl 64 id 5 protocol 17 offset (bytes) 0 flags [none] length: 540 10.1.1.1 > 10.1.1.2 org data=0 9 192 1 2 8 0 0 )
- 2.05489 /NodeList/1/DeviceList/0/$ns3::PointToPointNetDevice/TxQueue/Dequeue ns3::PppHeader (Point-to-Point Protocol: IP (0x0021)) ns3::Ipv4Header (tos 0x0 DSCP Default ECN Not-ECT ttl 64 id 5 protocol 1 offset (bytes) 0 flags [none] length: 56 10.1.1.2 > 10.1.1.1) ns3::Icmpv4Header (type=3, code=3) ns3::Icmpv4DestinationUnreachable (tos 0x0 DSCP Default ECN Not-ECT ttl 64 id 5 protocol 17 offset (bytes) 0 flags [none] length: 540 10.1.1.1 > 10.1.1.2 org data=0 9 192 1 2 8 0 0 )
r 2.05698 /NodeList/0/DeviceList/0/$ns3::PointToPointNetDevice/MacRx ns3::PppHeader (Point-to-Point Protocol: IP (0x0021)) ns3::Ipv4Header (tos 0x0 DSCP Default ECN Not-ECT ttl 64 id 5 protocol 1 offset (bytes) 0 flags [none] length: 56 10.1.1.2 > 10.1.1.1) ns3::Icmpv4Header (type=3, code=3) ns3::Icmpv4DestinationUnreachable (tos 0x0 DSCP Default ECN Not-ECT ttl 64 id 5 protocol 17 offset (bytes) 0 flags [none] length: 540 10.1.1.1 > 10.1.1.2 org data=0 9 192 1 2 8 0 0 )
+ 2.05734 /NodeList/1/DeviceList/0/$ns3::PointToPointNetDevice/TxQueue/Enqueue ns3::PppHeader (Point-to-Point Protocol: IP (0x0021)) ns3::Ipv4Header (tos 0x0 DSCP Default ECN Not-ECT ttl 64 id 6 protocol 17 offset (bytes) 0 flags [none] length: 540 10.1.1.2 > 10.1.1.1) ns3::UdpHeader (length: 520 49153 > 9) Payload (size=512)
- 2.05734 /NodeList/1/DeviceList/0/$ns3::PointToPointNetDevice/TxQueue/Dequeue ns3::PppHeader (Point-to-Point Protocol: IP (0x0021)) ns3::Ipv4Header (tos 0x0 DSCP Default ECN Not-ECT ttl 64 id 6 protocol 17 offset (bytes) 0 flags [none] length: 540 10.1.1.2 > 10.1.1.1) ns3::UdpHeader (length: 520 49153 > 9) Payload (size=512)
r 2.06021 /NodeList/0/DeviceList/0/$ns3::PointToPointNetDevice/MacRx ns3::PppHeader (Point-to-Point Protocol: IP (0x0021)) ns3::Ipv4Header (tos 0x0 DSCP Default ECN Not-ECT ttl 64 id 6 protocol 17 offset (bytes) 0 flags [none] length: 540 10.1.1.2 > 10.1.1.1) ns3::UdpHeader (length: 520 49153 > 9) Payload (size=512)
+ 2.06021 /NodeList/0/DeviceList/0/$ns3::PointToPointNetDevice/TxQueue/Enqueue ns3::PppHeader (Point-to-Point Protocol: IP (0x0021)) ns3::Ipv4Header (tos 0x0 DSCP Default ECN Not-ECT ttl 64 id 6 protocol 17 offset (bytes) 0 flags [none] length: 540 10.1.1.1 > 10.1.1.2) ns3::UdpHeader (length: 520 9 > 49153) Payload (size=512)
- 2.06021 /NodeList/0/DeviceList/0/$ns3::PointToPointNetDevice/TxQueue/Dequeue ns3::PppHeader (Point-to-Point Protocol: IP (0x0021)) ns3::Ipv4Header (tos 0x0 DSCP Default ECN Not-ECT ttl 64 id 6 protocol 17 offset (bytes) 0 flags [none] length: 540 10.1.1.1 > 10.1.1.2) ns3::UdpHeader (length: 520 9 > 49153) Payload (size=512)
r 2.06308 /NodeList/1/DeviceList/0/$ns3::PointToPointNetDevice/MacRx ns3::PppHeader (Point-to-Point Protocol: IP (0x0021)) ns3::Ipv4Header (tos 0x0 DSCP Default ECN Not-ECT ttl 64 id 6 protocol 17 offset (bytes) 0 flags [none] length: 540 10.1.1.1 > 10.1.1.2) ns3::UdpHeader (length: 520 9 > 49153) Payload (size=512)
+ 2.06308 /NodeList/1/DeviceList/0/$ns3::PointToPointNetDevice/TxQueue/Enqueue ns3::PppHeader (Point-to-Point Protocol: IP (0x0021)) ns3::Ipv4Header (tos 0x0 DSCP Default ECN Not-ECT ttl 64 id 6 protocol 1 offset (bytes) 0 flags [none] length: 56 10.1.1.2 > 10.1.1.1) ns3::Icmpv4Header (type=3, code=3) ns3::Icmpv4DestinationUnreachable (tos 0x0 DSCP Default ECN Not-ECT ttl 64 id 6 protocol 17 offset (bytes) 0 flags [none] length: 540 10.1.1.1 > 10.1.1.2 org data=0 9 192 1 2 8 0 0 )
- 2.06308 /NodeList/1/DeviceList/0/$ns3::PointToPointNetDevice/TxQueue/Dequeue ns3::PppHeader (Point-to-Point Protocol: IP (0x0021)) ns3::Ipv4Header (tos 0x0 DSCP Default ECN Not-ECT ttl 64 id 6 protocol 1 offset (bytes) 0 flags [none] length: 56 10.1.1.2 > 10.1.1.1) ns3::Icmpv4Header (type=3, code=3) ns3::Icmpv4DestinationUnreachable (tos 0x0 DSCP Default ECN Not-ECT ttl 64 id 6 protocol 17 offset (bytes) 0 flags [none] length: 540 10.1.1.1 > 10.1.1.2 org data=0 9 192 1 2 8 0 0 )
r 2.06517 /NodeList/0/DeviceList/0/$ns3::PointToPointNetDevice/MacRx ns3::PppHeader (Point-to-Point Protocol: IP (0x0021)) ns3::Ipv4Header (tos 0x0 DSCP Default ECN Not-ECT ttl 64 id 6 protocol 1 offset (bytes) 0 flags [none] length: 56 10.1.1.2 > 10.1.1.1) ns3::Icmpv4Header (type=3, code=3) ns3::Icmpv4DestinationUnreachable (tos 0x0 DSCP Default ECN Not-ECT ttl 64 id 6 protocol 17 offset (bytes) 0 flags [none] length: 540 10.1.1.1 > 10.1.1.2 org data=0 9 192 1 2 8 0 0 )
+ 2.06554 /NodeList/1/DeviceList/0/$ns3::PointToPointNetDevice/TxQueue/Enqueue ns3::PppHeader (Point-to-Point Protocol: IP (0x0021)) ns3::Ipv4Header (tos 0x0 DSCP Default ECN Not-ECT ttl 64 id 7 protocol 17 offset (bytes) 0 flags [none] length: 540 10.1.1.2 > 10.1.1.1) ns3::UdpHeader (length: 520 49153 > 9) Payload (size=512)
- 2.06554 /NodeList/1/DeviceList/0/$ns3::PointToPointNetDevice/TxQueue/Dequeue ns3::PppHeader (Point-to-Point Protocol: IP (0x0021)) ns3::Ipv4Header (tos 0x0 DSCP Default ECN Not-ECT ttl 64 id 7 protocol 17 offset (bytes) 0 flags [none] length: 540 10.1.1.2 > 10.1.1.1) ns3::UdpHeader (length: 520 49153 > 9) Payload (size=512)
r 2.0684 /NodeList/0/DeviceList/0/$ns3::PointToPointNetDevice/MacRx ns3::PppHeader (Point-to-Point Protocol: IP (0x0021)) ns3::Ipv4Header (tos 0x0 DSCP Default ECN Not-ECT ttl 64 id 7 protocol 17 offset (bytes) 0 flags [none] length: 540 10.1.1.2 > 10.1.1.1) ns3::UdpHeader (length: 520 49153 > 9) Payload (size=512)
+ 2.0684 /NodeList/0/DeviceList/0/$ns3::PointToPointNetDevice/TxQueue/Enqueue ns3::PppHeader (Point-to-Point Protocol: IP (0x0021)) ns3::Ipv4Header (tos 0x0 DSCP Default ECN Not-ECT ttl 64 id 7 protocol 17 offset (bytes) 0 flags [none] length: 540 10.1.1.1 > 10.1.1.2) ns3::UdpHeader (length: 520 9 > 49153) Payload (size=512)
- 2.0684 /NodeList/0/DeviceList/0/$ns3::PointToPointNetDevice/TxQueue/Dequeue ns3::PppHeader (Point-to-Point Protocol: IP (0x0021)) ns3::Ipv4Header (tos 0x0 DSCP Default ECN Not-ECT ttl 64 id 7 protocol 17 offset (bytes) 0 flags [none] length: 540 10.1.1.1 > 10.1.1.2) ns3::UdpHeader (length: 520 9 > 49153) Payload (size=512)
r 2.07127 /NodeList/1/DeviceList/0/$ns3::PointToPointNetDevice/MacRx ns3::PppHeader (Point-to-Point Protocol: IP (0x0021)) ns3::Ipv4Header (tos 0x0 DSCP Default ECN Not-ECT ttl 64 id 7 protocol 17 offset (bytes) 0 flags [none] length: 540 10.1.1.1 > 10.1.1.2) ns3::UdpHeader (length: 520 9 > 49153) Payload (size=512)
+ 2.07127 /NodeList/1/DeviceList/0/$ns3::PointToPointNetDevice/TxQueue/Enqueue ns3::PppHeader (Point-to-Point Protocol: IP (0x0021)) ns3::Ipv4Header (tos 0x0 DSCP Default ECN Not-ECT ttl 64 id 7 protocol 1 offset (bytes) 0 flags [none] length: 56 10.1.1.2 > 10.1.1.1) ns3::Icmpv4Header (type=3, code=3) ns3::Icmpv4DestinationUnreachable (tos 0x0 DSCP Default ECN Not-ECT ttl 64 id 7 protocol 17 offset (bytes) 0 flags [none] length: 540 10.1.1.1 > 10.1.1.2 org data=0 9 192 1 2 8 0 0 )
- 2.07127 /NodeList/1/DeviceList/0/$ns3::PointToPointNetDevice/TxQueue/Dequeue ns3::PppHeader (Point-to-Point Protocol: IP (0x0021)) ns3::Ipv4Header (tos 0x0 DSCP Default ECN Not-ECT ttl 64 id 7 protocol 1 offset (bytes) 0 flags [none] length: 56 10.1.1.2 > 10.1.1.1) ns3::Icmpv4Header (type=3, code=3) ns3::Icmpv4DestinationUnreachable (tos 0x0 DSCP Default ECN Not-ECT ttl 64 id 7 protocol 17 offset (bytes) 0 flags [none] length: 540 10.1.1.1 > 10.1.1.2 org data=0 9 192 1 2 8 0 0 )
r 2.07336 /NodeList/0/DeviceList/0/$ns3::PointToPointNetDevice/MacRx ns3::PppHeader (Point-to-Point Protocol: IP (0x0021)) ns3::Ipv4Header (tos 0x0 DSCP Default ECN Not-ECT ttl 64 id 7 protocol 1 offset (bytes) 0 flags [none] length: 56 10.1.1.2 > 10.1.1.1) ns3::Icmpv4Header (type=3, code=3) ns3::Icmpv4DestinationUnreachable (tos 0x0 DSCP Default ECN Not-ECT ttl 64 id 7 protocol 17 offset (bytes) 0 flags [none] length: 540 10.1.1.1 > 10.1.1.2 org data=0 9 192 1 2 8 0 0 )
+ 2.07373 /NodeList/1/DeviceList/0/$ns3::PointToPointNetDevice/TxQueue/Enqueue ns3::PppHeader (Point-to-Point Protocol: IP (0x0021)) ns3::Ipv4Header (tos 0x0 DSCP Default ECN Not-ECT ttl 64 id 8 protocol 17 offset (bytes) 0 flags [none] length: 540 10.1.1.2 > 10.1.1.1) ns3::UdpHeader (length: 520 49153 > 9) Payload (size=512)
- 2.07373 /NodeList/1/DeviceList/0/$ns3::PointToPointNetDevice/TxQueue/Dequeue ns3::PppHeader (Point-to-Point Protocol: IP (0x0021)) ns3::Ipv4Header (tos 0x0 DSCP Default ECN Not-ECT ttl 64 id 8 protocol 17 offset (bytes) 0 flags [none] length: 540 10.1.1.2 > 10.1.1.1) ns3::UdpHeader (length: 520 49153 > 9) Payload (size=512)
r 2.0766 /NodeList/0/DeviceList/0/$ns3::PointToPointNetDevice/MacRx ns3::PppHeader (Point-to-Point Protocol: IP (0x0021)) ns3::Ipv4Header (tos 0x0 DSCP Default ECN Not-ECT ttl 64 id 8 protocol 17 offset (bytes) 0 flags [none] length: 540 10.1.1.2 > 10.1.1.1) ns3::UdpHeader (length: 520 49153 > 9) Payload (size=512)
+ 2.0766 /NodeList/0/DeviceList/0/$ns3::PointToPointNetDevice/TxQueue/Enqueue ns3::PppHeader (Point-to-Point Protocol: IP (0x0021)) ns3::Ipv4Header (tos 0x0 DSCP Default ECN Not-ECT ttl 64 id 8 protocol 17 offset (bytes) 0 flags [none] length: 540 10.1.1.1 > 10.1.1.2) ns3::UdpHeader (length: 520 9 > 49153) Payload (size=512)
- 2.0766 /NodeList/0/DeviceList/0/$ns3::PointToPointNetDevice/TxQueue/Dequeue ns3::PppHeader (Point-to-Point Protocol: IP (0x0021)) ns3::Ipv4Header (tos 0x0 DSCP Default ECN Not-ECT ttl 64 id 8 protocol 17 offset (bytes) 0 flags [none] length: 540 10.1.1.1 > 10.1.1.2) ns3::UdpHeader (length: 520 9 > 49153) Payload (size=512)
r 2.07946 /NodeList/1/DeviceList/0/$ns3::PointToPointNetDevice/MacRx ns3::PppHeader (Point-to-Point Protocol: IP (0x0021)) ns3::Ipv4Header (tos 0x0 DSCP Default ECN Not-ECT ttl 64 id 8 protocol 17 offset (bytes) 0 flags [none] length: 540 10.1.1.1 > 10.1.1.2) ns3::UdpHeader (length: 520 9 > 49153) Payload (size=512)
+ 2.07946 /NodeList/1/DeviceList/0/$ns3::PointToPointNetDevice/TxQueue/Enqueue ns3::PppHeader (Point-to-Point Protocol: IP (0x0021)) ns3::Ipv4Header (tos 0x0 DSCP Default ECN Not-ECT ttl 64 id 8 protocol 1 offset (bytes) 0 flags [none] length: 56 10.1.1.2 > 10.1.1.1) ns3::Icmpv4Header (type=3, code=3) ns3::Icmpv4DestinationUnreachable (tos 0x0 DSCP Default ECN Not-ECT ttl 64 id 8 protocol 17 offset (bytes) 0 flags [none] length: 540 10.1.1.1 > 10.1.1.2 org data=0 9 192 1 2 8 0 0 )